# vtk DataFile Version 3.0
Volcanic Tephra | t = 64.0 s
ASCII
DATASET POLYDATA
POINTS 49 float
-654.04 -4546.30 1789.15
3954.20 -962.86 2989.74
-511.98 4345.06 2867.29
2246.45 1614.65 3187.99
2287.41 2931.01 3562.57
1156.47 -2448.41 2274.32
-2510.84 -196.23 3128.51
1759.74 565.31 3288.08
741.80 -1447.76 2564.72
-616.25 1302.76 2527.95
-98.81 1330.44 3046.77
-518.14 -1112.54 2880.91
12.62 -899.55 3105.69
163.01 725.15 2839.64
386.88 201.47 2797.13
-58.15 425.40 2788.52
122.50 72.36 2734.38
-117.18 -82.53 2749.07
56.40 307.75 2742.40
293.52 102.24 2663.45
-50.38 -50.03 2725.58
65.37 135.72 2777.38
-13.97 9.93 2664.92
189.52 110.35 2723.64
-111.00 7.10 2725.45
134.15 -17.96 2761.40
180.47 -83.27 2701.71
-14.01 -21.78 2670.17
44.48 155.33 2738.23
68.34 30.60 2699.38
3.43 72.74 2732.92
144.15 232.65 2725.24
29.10 -138.06 2695.03
37.37 142.27 2714.70
48.48 -101.62 2739.48
-173.29 -18.24 2784.20
213.58 162.26 2792.68
-20.09 286.16 2659.67
-86.84 -210.11 2771.16
128.59 27.88 2659.51
-11.05 4.10 2655.15
1.22 -239.37 2652.18
28.53 137.08 2710.27
-79.09 -29.11 2670.22
263.83 139.51 2723.10
3.01 -190.90 2720.90
152.51 2.20 2737.18
6.42 -180.55 2692.98
131.06 -96.18 2737.57

VERTICES 49 98
1 0
1 1
1 2
1 3
1 4
1 5
1 6
1 7
1 8
1 9
1 10
1 11
1 12
1 13
1 14
1 15
1 16
1 17
1 18
1 19
1 20
1 21
1 22
1 23
1 24
1 25
1 26
1 27
1 28
1 29
1 30
1 31
1 32
1 33
1 34
1 35
1 36
1 37
1 38
1 39
1 40
1 41
1 42
1 43
1 44
1 45
1 46
1 47
1 48

POINT_DATA 49
VECTORS Velocity float
-40.80 -283.82 -141.11
254.50 -62.55 -57.34
-36.41 309.58 -56.65
158.72 113.94 -27.01
187.81 240.80 14.06
95.40 -204.90 -101.05
-232.78 -16.68 -13.24
180.86 55.99 16.45
92.37 -180.67 -53.64
-85.83 178.92 -53.58
-9.06 175.64 27.42
-85.14 -191.71 -1.70
1.98 -223.31 79.90
51.03 238.90 14.25
175.03 98.58 -0.62
-8.02 178.64 15.17
267.48 162.14 61.91
-109.18 -60.29 30.04
71.17 291.09 22.45
208.18 57.51 0.94
-67.06 -123.37 18.24
123.24 237.93 25.31
-161.32 129.89 44.60
204.47 96.31 26.72
-131.21 -29.83 26.62
142.97 4.97 41.74
206.41 -77.72 54.96
-115.14 -225.55 18.99
21.63 86.99 67.38
213.67 156.15 104.02
2.20 138.05 6.57
94.42 129.32 51.49
66.27 -153.48 76.25
96.11 304.60 30.57
91.05 -177.48 32.70
-263.17 -47.90 117.99
219.59 155.49 58.12
-32.23 314.27 54.57
-138.70 -275.58 14.36
245.99 76.97 98.58
-186.44 89.19 64.28
-12.86 -196.19 96.85
13.33 183.83 84.76
-167.68 -85.05 17.92
225.60 121.31 98.85
-56.67 -105.27 69.12
211.56 17.65 8.00
13.33 -235.71 0.68
76.99 -103.81 29.46
SCALARS Diameter float
LOOKUP_TABLE default
0.0550
0.4905
238.0519
0.5185
0.4808
0.0675
0.1391
0.0618
47.5898
0.0359
101.2715
0.1385
139.5599
0.0897
55.6268
0.8893
0.0309
0.4587
0.2278
38.1489
0.0427
0.0757
0.4226
33.4058
0.2116
294.8057
27.0256
0.2168
0.0897
56.2012
0.1069
0.1725
1.9809
0.1649
0.1103
65.7092
49.6869
1.6786
0.0363
0.2136
15.8870
1.7233
1.1539
1.2106
0.0291
0.1822
0.2492
35.4779
279.7894
SCALARS Temperature float
LOOKUP_TABLE default
980.0
990.0
1000.2
1010.4
1020.8
1031.3
1041.8
1052.5
1063.3
1074.2
1085.2
1096.4
1107.6
1119.0
1130.5
1142.0
1150.0
1150.0
1150.0
1150.0
1150.0
1150.0
1150.0
1150.0
1150.0
1150.0
1150.0
1150.0
1150.0
1150.0
1150.0
1150.0
1150.0
1150.0
1150.0
1150.0
1150.0
1150.0
1150.0
1150.0
1150.0
1150.0
1150.0
1150.0
1150.0
1150.0
1150.0
1150.0
1150.0
SCALARS SizeClass int
LOOKUP_TABLE default
3
2
0
2
2
3
3
3
1
3
0
3
0
3
1
2
3
2
3
1
3
3
2
1
3
0
1
3
3
1
3
3
2
3
3
0
1
2
3
3
1
2
2
2
3
3
3
1
0
SCALARS ParticleID int
LOOKUP_TABLE default
0
1
2
3
4
5
6
7
8
9
10
11
12
13
14
15
16
17
18
19
20
21
22
23
24
25
26
27
28
29
30
31
32
33
34
35
36
37
38
39
40
41
42
43
44
45
46
47
48
