# vtk DataFile Version 3.0
Volcanic Tephra | t = 96.0 s
ASCII
DATASET POLYDATA
POINTS 98 float
-11846.72 -6346.94 208.28
-2248.03 -8324.43 645.87
11205.99 -2679.13 2384.38
-3964.65 -6955.95 149.08
-4506.66 -1848.62 347.80
-4034.00 4872.10 143.99
-6787.00 1040.23 400.08
-6785.30 -3646.28 2424.11
-2509.70 1792.68 317.09
6023.84 2865.54 1714.06
-3011.10 -6325.49 3188.79
-4759.09 630.83 327.68
-4832.75 -3963.51 434.83
2643.90 -2434.63 1327.11
-7422.29 -2980.16 1980.65
-7780.39 2477.38 2333.56
-1039.86 4316.47 71.17
4438.73 -5383.46 563.34
-1156.20 -8406.33 333.19
-3823.00 -1788.82 1679.73
4580.71 -5945.57 1385.08
6134.77 3371.55 3495.30
-7163.85 -261.76 1738.09
-3997.90 7152.87 3126.42
-3472.92 4278.83 1085.94
-4459.21 -2569.80 1995.27
4211.98 3346.96 491.35
-4802.47 2106.02 971.52
1251.00 2536.93 1185.59
4064.44 -1870.95 1990.91
4560.46 -4047.74 2233.76
-463.39 -2739.15 1785.78
2490.28 -53.92 1070.31
-3990.59 882.31 2662.15
-4093.87 -1526.51 2658.60
1570.92 5464.20 3215.41
-2262.92 1689.52 1243.58
2043.79 1108.12 1680.67
-6124.42 -3134.63 2452.59
-52.08 -2457.49 1689.08
-2081.83 2119.17 1574.85
-52.86 -3003.11 2543.02
-2302.08 2209.06 1463.85
2355.82 3009.87 2812.99
-556.98 -5364.61 1850.50
-3639.18 1758.31 2958.18
-995.49 -2933.18 1942.94
1532.97 2364.08 2931.35
-967.03 -1789.69 2664.76
36.24 -2285.84 2451.18
-2694.77 3609.85 3491.23
1019.19 2903.06 2368.68
-992.62 -2332.49 3058.20
1677.36 -1367.86 2801.01
-259.60 -1829.37 2549.77
-2555.62 2421.99 2607.55
2110.04 3349.89 3151.09
2460.76 -2987.77 2756.83
-612.11 1976.64 2919.99
1735.94 -1782.67 2945.40
870.18 -955.12 2394.69
2845.33 -453.65 3252.78
2449.47 122.59 2305.53
364.81 2642.77 2874.50
-224.21 -2515.48 2843.46
-586.51 -1132.47 3063.22
-1616.76 1809.13 2561.36
802.31 -301.94 2639.37
1596.37 537.13 2934.92
9.20 -2161.82 2484.18
1204.31 -82.44 2819.29
1193.34 984.95 3108.85
884.76 774.10 3013.95
1038.52 277.15 2522.23
-1392.78 645.54 2698.95
-235.77 1757.24 2609.20
560.05 1188.42 3237.45
-1455.39 -800.23 3496.55
707.87 267.09 2732.47
214.77 -1166.87 2644.20
-544.01 -518.75 2728.88
-261.17 452.73 2801.98
605.34 -326.40 2728.25
744.77 -563.12 2913.67
-786.15 -379.71 2870.68
5.28 516.93 2682.64
-626.17 -550.49 2756.69
-399.77 255.13 3014.21
-391.72 82.48 2781.20
68.38 392.41 2693.00
305.74 25.50 2781.13
-217.34 -132.29 2793.78
-124.74 -78.85 2774.42
-70.77 -63.49 2722.88
108.16 95.97 2779.64
3.31 0.45 2660.08
191.13 186.25 2707.49
-81.37 -55.44 2741.95

VERTICES 98 196
1 0
1 1
1 2
1 3
1 4
1 5
1 6
1 7
1 8
1 9
1 10
1 11
1 12
1 13
1 14
1 15
1 16
1 17
1 18
1 19
1 20
1 21
1 22
1 23
1 24
1 25
1 26
1 27
1 28
1 29
1 30
1 31
1 32
1 33
1 34
1 35
1 36
1 37
1 38
1 39
1 40
1 41
1 42
1 43
1 44
1 45
1 46
1 47
1 48
1 49
1 50
1 51
1 52
1 53
1 54
1 55
1 56
1 57
1 58
1 59
1 60
1 61
1 62
1 63
1 64
1 65
1 66
1 67
1 68
1 69
1 70
1 71
1 72
1 73
1 74
1 75
1 76
1 77
1 78
1 79
1 80
1 81
1 82
1 83
1 84
1 85
1 86
1 87
1 88
1 89
1 90
1 91
1 92
1 93
1 94
1 95
1 96
1 97

POINT_DATA 98
VECTORS Velocity float
-280.50 -150.77 -264.18
-61.22 -222.69 -233.60
310.37 -74.29 -185.99
-116.36 -204.10 -244.05
-137.52 -56.51 -231.00
-125.50 150.41 -235.32
-220.73 34.85 -221.83
-224.05 -120.03 -154.02
-80.02 57.20 -224.30
200.42 95.61 -173.60
-107.50 -225.80 -120.11
-168.24 22.30 -222.65
-173.80 -142.79 -217.04
98.99 -91.16 -180.89
-274.36 -109.72 -157.65
-291.88 92.06 -140.95
-39.90 167.28 -231.59
174.44 -211.41 -211.81
-45.78 -334.62 -218.43
-149.99 -70.73 -160.51
184.55 -239.40 -171.05
255.66 140.04 -83.18
-298.15 -11.45 -155.73
-173.63 310.69 -95.75
-144.25 178.89 -183.16
-198.07 -114.15 -145.03
190.02 150.93 -208.15
-211.23 93.83 -187.80
53.37 109.63 -173.80
181.59 -84.45 -139.45
219.79 -195.14 -122.39
-22.00 -132.52 -144.40
120.31 -2.13 -182.58
-188.67 40.58 -97.36
-200.60 -75.43 -102.05
80.70 283.96 -66.31
-108.55 80.40 -174.55
100.12 55.69 -145.96
-326.50 -167.99 -105.53
-1.64 -133.17 -147.50
-107.85 111.90 -154.49
-3.91 -171.49 -91.58
-130.91 125.79 -159.62
137.98 177.75 -70.59
-34.80 -335.19 -136.95
-228.64 110.95 -63.23
-63.99 -185.17 -124.14
93.54 142.69 -61.46
-64.31 -119.80 -80.93
3.36 -142.72 -85.02
-191.28 256.30 -16.99
73.05 205.84 -87.88
-71.05 -165.17 -41.60
118.85 -99.03 -61.29
-21.69 -130.43 -79.06
-201.39 191.40 -67.19
166.12 265.52 -21.47
203.92 -247.99 -56.26
-49.57 156.59 -32.19
155.66 -159.85 -39.08
63.24 -70.08 -78.34
248.80 -38.49 5.28
215.31 10.19 -85.37
36.51 265.19 -30.98
-23.25 -238.32 -29.45
-62.29 -118.70 -10.57
-176.24 199.97 -55.94
94.79 -35.31 -43.85
172.84 59.39 -8.72
1.01 -266.65 -70.92
152.09 -9.43 -24.71
163.23 136.43 15.04
113.95 104.31 1.23
122.29 28.69 -55.58
-204.21 88.64 -23.67
-40.61 300.37 -54.10
93.22 195.73 60.65
-277.83 -152.70 121.67
104.21 38.48 -13.57
35.26 -198.70 -24.26
-131.36 -126.33 -28.82
-62.44 104.19 8.00
175.92 -95.73 -29.28
217.34 -164.33 33.87
-213.21 -109.77 28.00
6.94 165.53 -10.09
-207.65 -173.38 12.52
-226.43 144.22 130.98
-128.82 28.71 41.92
49.98 296.10 -4.69
336.09 29.98 126.98
-128.86 -63.96 86.96
-127.58 -54.48 12.38
-104.14 -119.41 31.05
119.17 89.34 13.99
253.06 48.54 119.13
239.89 184.22 114.06
-186.34 -147.70 83.51
SCALARS Diameter float
LOOKUP_TABLE default
0.3336
32.4936
3.8120
0.2486
0.1066
0.0531
0.2376
0.2061
0.1965
25.3698
33.4875
1.1397
2.8796
0.6305
0.1112
87.3057
0.3367
0.0793
0.1812
1.3159
0.0417
227.0140
1.5516
0.1815
0.0271
0.1806
0.1997
1.8951
0.5208
0.0876
0.9641
0.1851
0.2344
0.1523
0.1246
0.2157
0.5949
0.1417
42.4716
0.7893
37.1713
45.2437
0.2096
45.4120
0.0579
1.8430
0.2177
0.0105
0.1503
0.6514
39.8165
0.0286
1.9807
0.2399
13.2839
0.2178
0.6728
0.1031
0.2144
0.1329
1.7685
165.1065
0.4265
27.5459
0.0331
0.6617
1.8004
1.7756
0.2112
0.8067
0.1481
29.2902
0.1879
0.0852
1.2008
0.1388
0.0347
27.7656
0.0104
0.2450
1.2359
209.0628
0.7287
0.2174
18.8001
44.7804
0.2157
0.2083
0.8998
0.0285
0.0912
1.0801
147.0818
1.0650
0.0889
0.0318
0.1629
0.1132
SCALARS Temperature float
LOOKUP_TABLE default
760.7
802.3
805.0
818.5
837.9
840.7
854.8
857.6
860.5
863.4
869.2
872.1
875.0
880.8
883.8
886.7
889.7
892.6
895.6
898.6
904.6
907.6
910.7
913.7
916.8
919.8
922.9
926.0
929.1
932.2
935.3
938.4
941.5
944.7
947.8
951.0
954.2
957.4
960.6
963.8
967.0
970.2
973.5
976.7
980.0
983.2
986.5
989.8
993.1
996.4
999.8
1003.1
1006.4
1009.8
1013.2
1016.6
1020.0
1023.4
1026.8
1030.2
1033.6
1037.1
1040.6
1044.0
1047.5
1051.0
1054.5
1058.1
1061.6
1065.1
1068.7
1072.3
1075.8
1079.4
1083.0
1086.6
1090.3
1093.9
1097.6
1101.2
1104.9
1108.6
1112.3
1116.0
1119.7
1123.5
1127.2
1131.0
1134.8
1138.6
1142.4
1146.2
1150.0
1150.0
1150.0
1150.0
1150.0
1150.0
SCALARS SizeClass int
LOOKUP_TABLE default
2
1
1
3
3
3
3
3
3
1
1
2
1
2
3
0
2
3
3
2
3
0
2
3
3
3
3
2
2
3
2
3
3
3
3
3
2
3
1
2
1
1
3
1
3
2
3
3
3
2
1
3
2
3
1
3
2
3
3
3
2
0
2
1
3
2
2
2
3
2
3
1
3
3
2
3
3
1
3
3
2
0
2
3
1
1
3
3
2
3
3
2
0
2
3
3
3
3
SCALARS ParticleID int
LOOKUP_TABLE default
20
36
37
42
49
50
55
56
57
58
60
61
62
64
65
66
67
68
69
70
72
73
74
75
76
77
78
79
80
81
82
83
84
85
86
87
88
89
90
91
92
93
94
95
96
97
98
99
100
101
102
103
104
105
106
107
108
109
110
111
112
113
114
115
116
117
118
119
120
121
122
123
124
125
126
127
128
129
130
131
132
133
134
135
136
137
138
139
140
141
142
143
144
145
146
147
148
149
